
Host: jln-linbook

Timers On : Sun Oct 25 07:25:50 2020
Timers Off: Sun Oct 25 07:25:51 2020

Wall Time:        1.57 seconds

                                                       Time (seconds)
Module                                       User      System        Wall        Calls

--------------------------------------------------------------------------------------

**************************************************************************************
